ITEM: TIMESTEP
10
ITEM: NUMBER OF ATOMS
128
ITEM: BOX BOUNDS pp pp pp
0.000000 384.000000
-100.000000 100.000000
-100.000000 100.000000
ITEM: ATOMS id type x y z vx vy vz
     1   1      -0.000000       0.000000       0.000000     2.000000     0.000000     0.000000
     2   1       2.739600       0.000000       0.000000     2.000000     0.000000     0.000000
     3   1       6.000000       0.000000       0.000000     2.000000     0.000000     0.000000
     4   1       8.739600       0.000000       0.000000     2.000000     0.000000     0.000000
     5   1      12.000000       0.000000       0.000000     2.000000     0.000000     0.000000
     6   1      14.739600       0.000000       0.000000     2.000000     0.000000     0.000000
     7   1      18.000000       0.000000       0.000000     2.000000     0.000000     0.000000
     8   1      20.739600       0.000000       0.000000     2.000000     0.000000     0.000000
     9   1      24.000000       0.000000       0.000000     2.000000     0.000000     0.000000
    10   1      26.739600       0.000000       0.000000     2.000000     0.000000     0.000000
    11   1      30.000000       0.000000       0.000000     2.000000     0.000000     0.000000
    12   1      32.739600       0.000000       0.000000     2.000000     0.000000     0.000000
    13   1      36.000000       0.000000       0.000000     2.000000     0.000000     0.000000
    14   1      38.739600       0.000000       0.000000     2.000000     0.000000     0.000000
    15   1      42.000000       0.000000       0.000000     2.000000     0.000000     0.000000
    16   1      44.739600       0.000000       0.000000     2.000000     0.000000     0.000000
    17   1      48.000000       0.000000       0.000000     2.000000     0.000000     0.000000
    18   1      50.739600       0.000000       0.000000     2.000000     0.000000     0.000000
    19   1      54.000000       0.000000       0.000000     2.000000     0.000000     0.000000
    20   1      56.739600       0.000000       0.000000     2.000000     0.000000     0.000000
    21   1      60.000000       0.000000       0.000000     2.000000     0.000000     0.000000
    22   1      62.739600       0.000000       0.000000     2.000000     0.000000     0.000000
    23   1      66.000000       0.000000       0.000000     2.000000     0.000000     0.000000
    24   1      68.739600       0.000000       0.000000     2.000000     0.000000     0.000000
    25   1      72.000000       0.000000       0.000000     2.000000     0.000000     0.000000
    26   1      74.739600       0.000000       0.000000     2.000000     0.000000     0.000000
    27   1      78.000000       0.000000       0.000000     2.000000     0.000000     0.000000
    28   1      80.739600       0.000000       0.000000     2.000000     0.000000     0.000000
    29   1      84.000000       0.000000       0.000000     2.000000     0.000000     0.000000
    30   1      86.739600       0.000000       0.000000     2.000000     0.000000     0.000000
    31   1      90.000000       0.000000       0.000000     2.000000     0.000000     0.000000
    32   1      92.739600       0.000000       0.000000     2.000000     0.000000     0.000000
    33   1      96.000000       0.000000       0.000000     2.000000     0.000000     0.000000
    34   1      98.739600       0.000000       0.000000     2.000000     0.000000     0.000000
    35   1     102.000000       0.000000       0.000000     2.000000     0.000000     0.000000
    36   1     104.739600       0.000000       0.000000     2.000000     0.000000     0.000000
    37   1     108.000000       0.000000       0.000000     2.000000     0.000000     0.000000
    38   1     110.739600       0.000000       0.000000     2.000000     0.000000     0.000000
    39   1     114.000000       0.000000       0.000000     2.000000     0.000000     0.000000
    40   1     116.739600       0.000000       0.000000     2.000000     0.000000     0.000000
    41   1     120.000000       0.000000       0.000000     2.000000     0.000000     0.000000
    42   1     122.739600       0.000000       0.000000     2.000000     0.000000     0.000000
    43   1     126.000000       0.000000       0.000000     2.000000     0.000000     0.000000
    44   1     128.739600       0.000000       0.000000     2.000000     0.000000     0.000000
    45   1     132.000000       0.000000       0.000000     2.000000     0.000000     0.000000
    46   1     134.739600       0.000000       0.000000     2.000000     0.000000     0.000000
    47   1     138.000000       0.000000       0.000000     2.000000     0.000000     0.000000
    48   1     140.739600       0.000000       0.000000     2.000000     0.000000     0.000000
    49   1     144.000000       0.000000       0.000000     2.000000     0.000000     0.000000
    50   1     146.739600       0.000000       0.000000     2.000000     0.000000     0.000000
    51   1     150.000000       0.000000       0.000000     2.000000     0.000000     0.000000
    52   1     152.739600       0.000000       0.000000     2.000000     0.000000     0.000000
    53   1     156.000000       0.000000       0.000000     2.000000     0.000000     0.000000
    54   1     158.739600       0.000000       0.000000     2.000000     0.000000     0.000000
    55   1     162.000000       0.000000       0.000000     2.000000     0.000000     0.000000
    56   1     164.739600       0.000000       0.000000     2.000000     0.000000     0.000000
    57   1     168.000000       0.000000       0.000000     2.000000     0.000000     0.000000
    58   1     170.739600       0.000000       0.000000     2.000000     0.000000     0.000000
    59   1     174.000000       0.000000       0.000000     2.000000     0.000000     0.000000
    60   1     176.739600       0.000000       0.000000     2.000000     0.000000     0.000000
    61   1     180.000000       0.000000       0.000000     2.000000     0.000000     0.000000
    62   1     182.739600       0.000000       0.000000     2.000000     0.000000     0.000000
    63   1     186.000000       0.000000       0.000000     2.000000     0.000000     0.000000
    64   1     188.739600       0.000000       0.000000     2.000000     0.000000     0.000000
    65   1     192.000000       0.000000       0.000000     2.000000     0.000000     0.000000
    66   1     194.739600       0.000000       0.000000     2.000000     0.000000     0.000000
    67   1     198.000000       0.000000       0.000000     2.000000     0.000000     0.000000
    68   1     200.739600       0.000000       0.000000     2.000000     0.000000     0.000000
    69   1     204.000000       0.000000       0.000000     2.000000     0.000000     0.000000
    70   1     206.739600       0.000000       0.000000     2.000000     0.000000     0.000000
    71   1     210.000000       0.000000       0.000000     2.000000     0.000000     0.000000
    72   1     212.739600       0.000000       0.000000     2.000000     0.000000     0.000000
    73   1     216.000000       0.000000       0.000000     2.000000     0.000000     0.000000
    74   1     218.739600       0.000000       0.000000     2.000000     0.000000     0.000000
    75   1     222.000000       0.000000       0.000000     2.000000     0.000000     0.000000
    76   1     224.739600       0.000000       0.000000     2.000000     0.000000     0.000000
    77   1     228.000000       0.000000       0.000000     2.000000     0.000000     0.000000
    78   1     230.739600       0.000000       0.000000     2.000000     0.000000     0.000000
    79   1     234.000000       0.000000       0.000000     2.000000     0.000000     0.000000
    80   1     236.739600       0.000000       0.000000     2.000000     0.000000     0.000000
    81   1     240.000000       0.000000       0.000000     2.000000     0.000000     0.000000
    82   1     242.739600       0.000000       0.000000     2.000000     0.000000     0.000000
    83   1     246.000000       0.000000       0.000000     2.000000     0.000000     0.000000
    84   1     248.739600       0.000000       0.000000     2.000000     0.000000     0.000000
    85   1     252.000000       0.000000       0.000000     2.000000     0.000000     0.000000
    86   1     254.739600       0.000000       0.000000     2.000000     0.000000     0.000000
    87   1     258.000000       0.000000       0.000000     2.000000     0.000000     0.000000
    88   1     260.739600       0.000000       0.000000     2.000000     0.000000     0.000000
    89   1     264.000000       0.000000       0.000000     2.000000     0.000000     0.000000
    90   1     266.739600       0.000000       0.000000     2.000000     0.000000     0.000000
    91   1     270.000000       0.000000       0.000000     2.000000     0.000000     0.000000
    92   1     272.739600       0.000000       0.000000     2.000000     0.000000     0.000000
    93   1     276.000000       0.000000       0.000000     2.000000     0.000000     0.000000
    94   1     278.739600       0.000000       0.000000     2.000000     0.000000     0.000000
    95   1     282.000000       0.000000       0.000000     2.000000     0.000000     0.000000
    96   1     284.739600       0.000000       0.000000     2.000000     0.000000     0.000000
    97   1     288.000000       0.000000       0.000000     2.000000     0.000000     0.000000
    98   1     290.739600       0.000000       0.000000     2.000000     0.000000     0.000000
    99   1     294.000000       0.000000       0.000000     2.000000     0.000000     0.000000
   100   1     296.739600       0.000000       0.000000     2.000000     0.000000     0.000000
   101   1     300.000000       0.000000       0.000000     2.000000     0.000000     0.000000
   102   1     302.739600       0.000000       0.000000     2.000000     0.000000     0.000000
   103   1     306.000000       0.000000       0.000000     2.000000     0.000000     0.000000
   104   1     308.739600       0.000000       0.000000     2.000000     0.000000     0.000000
   105   1     312.000000       0.000000       0.000000     2.000000     0.000000     0.000000
   106   1     314.739600       0.000000       0.000000     2.000000     0.000000     0.000000
   107   1     318.000000       0.000000       0.000000     2.000000     0.000000     0.000000
   108   1     320.739600       0.000000       0.000000     2.000000     0.000000     0.000000
   109   1     324.000000       0.000000       0.000000     2.000000     0.000000     0.000000
   110   1     326.739600       0.000000       0.000000     2.000000     0.000000     0.000000
   111   1     330.000000       0.000000       0.000000     2.000000     0.000000     0.000000
   112   1     332.739600       0.000000       0.000000     2.000000     0.000000     0.000000
   113   1     336.000000       0.000000       0.000000     2.000000     0.000000     0.000000
   114   1     338.739600       0.000000       0.000000     2.000000     0.000000     0.000000
   115   1     342.000000       0.000000       0.000000     2.000000     0.000000     0.000000
   116   1     344.739600       0.000000       0.000000     2.000000     0.000000     0.000000
   117   1     348.000000       0.000000       0.000000     2.000000     0.000000     0.000000
   118   1     350.739600       0.000000       0.000000     2.000000     0.000000     0.000000
   119   1     354.000000       0.000000       0.000000     2.000000     0.000000     0.000000
   120   1     356.739600       0.000000       0.000000     2.000000     0.000000     0.000000
   121   1     360.000000       0.000000       0.000000     2.000000     0.000000     0.000000
   122   1     362.739600       0.000000       0.000000     2.000000     0.000000     0.000000
   123   1     366.000000       0.000000       0.000000     2.000000     0.000000     0.000000
   124   1     368.739600       0.000000       0.000000     2.000000     0.000000     0.000000
   125   1     372.000000       0.000000       0.000000     2.000000     0.000000     0.000000
   126   1     374.739600       0.000000       0.000000     2.000000     0.000000     0.000000
   127   1     378.000000       0.000000       0.000000     2.000000     0.000000     0.000000
   128   1     380.739600       0.000000       0.000000     2.000000     0.000000     0.000000
ITEM: TIMESTEP
20
ITEM: NUMBER OF ATOMS
128
ITEM: BOX BOUNDS pp pp pp
0.000000 384.000000
-100.000000 100.000000
-100.000000 100.000000
ITEM: ATOMS id type x y z vx vy vz
     1   1      -0.000000       0.000000       0.000000     2.000000     0.000000     0.000000
     2   1       2.739600       0.000000       0.000000     2.000000     0.000000     0.000000
     3   1       6.000000       0.000000       0.000000     2.000000     0.000000     0.000000
     4   1       8.739600       0.000000       0.000000     2.000000     0.000000     0.000000
     5   1      12.000000       0.000000       0.000000     2.000000     0.000000     0.000000
     6   1      14.739600       0.000000       0.000000     2.000000     0.000000     0.000000
     7   1      18.000000       0.000000       0.000000     2.000000     0.000000     0.000000
     8   1      20.739600       0.000000       0.000000     2.000000     0.000000     0.000000
     9   1      24.000000       0.000000       0.000000     2.000000     0.000000     0.000000
    10   1      26.739600       0.000000       0.000000     2.000000     0.000000     0.000000
    11   1      30.000000       0.000000       0.000000     2.000000     0.000000     0.000000
    12   1      32.739600       0.000000       0.000000     2.000000     0.000000     0.000000
    13   1      36.000000       0.000000       0.000000     2.000000     0.000000     0.000000
    14   1      38.739600       0.000000       0.000000     2.000000     0.000000     0.000000
    15   1      42.000000       0.000000       0.000000     2.000000     0.000000     0.000000
    16   1      44.739600       0.000000       0.000000     2.000000     0.000000     0.000000
    17   1      48.000000       0.000000       0.000000     2.000000     0.000000     0.000000
    18   1      50.739600       0.000000       0.000000     2.000000     0.000000     0.000000
    19   1      54.000000       0.000000       0.000000     2.000000     0.000000     0.000000
    20   1      56.739600       0.000000       0.000000     2.000000     0.000000     0.000000
    21   1      60.000000       0.000000       0.000000     2.000000     0.000000     0.000000
    22   1      62.739600       0.000000       0.000000     2.000000     0.000000     0.000000
    23   1      66.000000       0.000000       0.000000     2.000000     0.000000     0.000000
    24   1      68.739600       0.000000       0.000000     2.000000     0.000000     0.000000
    25   1      72.000000       0.000000       0.000000     2.000000     0.000000     0.000000
    26   1      74.739600       0.000000       0.000000     2.000000     0.000000     0.000000
    27   1      78.000000       0.000000       0.000000     2.000000     0.000000     0.000000
    28   1      80.739600       0.000000       0.000000     2.000000     0.000000     0.000000
    29   1      84.000000       0.000000       0.000000     2.000000     0.000000     0.000000
    30   1      86.739600       0.000000       0.000000     2.000000     0.000000     0.000000
    31   1      90.000000       0.000000       0.000000     2.000000     0.000000     0.000000
    32   1      92.739600       0.000000       0.000000     2.000000     0.000000     0.000000
    33   1      96.000000       0.000000       0.000000     2.000000     0.000000     0.000000
    34   1      98.739600       0.000000       0.000000     2.000000     0.000000     0.000000
    35   1     102.000000       0.000000       0.000000     2.000000     0.000000     0.000000
    36   1     104.739600       0.000000       0.000000     2.000000     0.000000     0.000000
    37   1     108.000000       0.000000       0.000000     2.000000     0.000000     0.000000
    38   1     110.739600       0.000000       0.000000     2.000000     0.000000     0.000000
    39   1     114.000000       0.000000       0.000000     2.000000     0.000000     0.000000
    40   1     116.739600       0.000000       0.000000     2.000000     0.000000     0.000000
    41   1     120.000000       0.000000       0.000000     2.000000     0.000000     0.000000
    42   1     122.739600       0.000000       0.000000     2.000000     0.000000     0.000000
    43   1     126.000000       0.000000       0.000000     2.000000     0.000000     0.000000
    44   1     128.739600       0.000000       0.000000     2.000000     0.000000     0.000000
    45   1     132.000000       0.000000       0.000000     2.000000     0.000000     0.000000
    46   1     134.739600       0.000000       0.000000     2.000000     0.000000     0.000000
    47   1     138.000000       0.000000       0.000000     2.000000     0.000000     0.000000
    48   1     140.739600       0.000000       0.000000     2.000000     0.000000     0.000000
    49   1     144.000000       0.000000       0.000000     2.000000     0.000000     0.000000
    50   1     146.739600       0.000000       0.000000     2.000000     0.000000     0.000000
    51   1     150.000000       0.000000       0.000000     2.000000     0.000000     0.000000
    52   1     152.739600       0.000000       0.000000     2.000000     0.000000     0.000000
    53   1     156.000000       0.000000       0.000000     2.000000     0.000000     0.000000
    54   1     158.739600       0.000000       0.000000     2.000000     0.000000     0.000000
    55   1     162.000000       0.000000       0.000000     2.000000     0.000000     0.000000
    56   1     164.739600       0.000000       0.000000     2.000000     0.000000     0.000000
    57   1     168.000000       0.000000       0.000000     2.000000     0.000000     0.000000
    58   1     170.739600       0.000000       0.000000     2.000000     0.000000     0.000000
    59   1     174.000000       0.000000       0.000000     2.000000     0.000000     0.000000
    60   1     176.739600       0.000000       0.000000     2.000000     0.000000     0.000000
    61   1     180.000000       0.000000       0.000000     2.000000     0.000000     0.000000
    62   1     182.739600       0.000000       0.000000     2.000000     0.000000     0.000000
    63   1     186.000000       0.000000       0.000000     2.000000     0.000000     0.000000
    64   1     188.739600       0.000000       0.000000     2.000000     0.000000     0.000000
    65   1     192.000000       0.000000       0.000000     2.000000     0.000000     0.000000
    66   1     194.739600       0.000000       0.000000     2.000000     0.000000     0.000000
    67   1     198.000000       0.000000       0.000000     2.000000     0.000000     0.000000
    68   1     200.739600       0.000000       0.000000     2.000000     0.000000     0.000000
    69   1     204.000000       0.000000       0.000000     2.000000     0.000000     0.000000
    70   1     206.739600       0.000000       0.000000     2.000000     0.000000     0.000000
    71   1     210.000000       0.000000       0.000000     2.000000     0.000000     0.000000
    72   1     212.739600       0.000000       0.000000     2.000000     0.000000     0.000000
    73   1     216.000000       0.000000       0.000000     2.000000     0.000000     0.000000
    74   1     218.739600       0.000000       0.000000     2.000000     0.000000     0.000000
    75   1     222.000000       0.000000       0.000000     2.000000     0.000000     0.000000
    76   1     224.739600       0.000000       0.000000     2.000000     0.000000     0.000000
    77   1     228.000000       0.000000       0.000000     2.000000     0.000000     0.000000
    78   1     230.739600       0.000000       0.000000     2.000000     0.000000     0.000000
    79   1     234.000000       0.000000       0.000000     2.000000     0.000000     0.000000
    80   1     236.739600       0.000000       0.000000     2.000000     0.000000     0.000000
    81   1     240.000000       0.000000       0.000000     2.000000     0.000000     0.000000
    82   1     242.739600       0.000000       0.000000     2.000000     0.000000     0.000000
    83   1     246.000000       0.000000       0.000000     2.000000     0.000000     0.000000
    84   1     248.739600       0.000000       0.000000     2.000000     0.000000     0.000000
    85   1     252.000000       0.000000       0.000000     2.000000     0.000000     0.000000
    86   1     254.739600       0.000000       0.000000     2.000000     0.000000     0.000000
    87   1     258.000000       0.000000       0.000000     2.000000     0.000000     0.000000
    88   1     260.739600       0.000000       0.000000     2.000000     0.000000     0.000000
    89   1     264.000000       0.000000       0.000000     2.000000     0.000000     0.000000
    90   1     266.739600       0.000000       0.000000     2.000000     0.000000     0.000000
    91   1     270.000000       0.000000       0.000000     2.000000     0.000000     0.000000
    92   1     272.739600       0.000000       0.000000     2.000000     0.000000     0.000000
    93   1     276.000000       0.000000       0.000000     2.000000     0.000000     0.000000
    94   1     278.739600       0.000000       0.000000     2.000000     0.000000     0.000000
    95   1     282.000000       0.000000       0.000000     2.000000     0.000000     0.000000
    96   1     284.739600       0.000000       0.000000     2.000000     0.000000     0.000000
    97   1     288.000000       0.000000       0.000000     2.000000     0.000000     0.000000
    98   1     290.739600       0.000000       0.000000     2.000000     0.000000     0.000000
    99   1     294.000000       0.000000       0.000000     2.000000     0.000000     0.000000
   100   1     296.739600       0.000000       0.000000     2.000000     0.000000     0.000000
   101   1     300.000000       0.000000       0.000000     2.000000     0.000000     0.000000
   102   1     302.739600       0.000000       0.000000     2.000000     0.000000     0.000000
   103   1     306.000000       0.000000       0.000000     2.000000     0.000000     0.000000
   104   1     308.739600       0.000000       0.000000     2.000000     0.000000     0.000000
   105   1     312.000000       0.000000       0.000000     2.000000     0.000000     0.000000
   106   1     314.739600       0.000000       0.000000     2.000000     0.000000     0.000000
   107   1     318.000000       0.000000       0.000000     2.000000     0.000000     0.000000
   108   1     320.739600       0.000000       0.000000     2.000000     0.000000     0.000000
   109   1     324.000000       0.000000       0.000000     2.000000     0.000000     0.000000
   110   1     326.739600       0.000000       0.000000     2.000000     0.000000     0.000000
   111   1     330.000000       0.000000       0.000000     2.000000     0.000000     0.000000
   112   1     332.739600       0.000000       0.000000     2.000000     0.000000     0.000000
   113   1     336.000000       0.000000       0.000000     2.000000     0.000000     0.000000
   114   1     338.739600       0.000000       0.000000     2.000000     0.000000     0.000000
   115   1     342.000000       0.000000       0.000000     2.000000     0.000000     0.000000
   116   1     344.739600       0.000000       0.000000     2.000000     0.000000     0.000000
   117   1     348.000000       0.000000       0.000000     2.000000     0.000000     0.000000
   118   1     350.739600       0.000000       0.000000     2.000000     0.000000     0.000000
   119   1     354.000000       0.000000       0.000000     2.000000     0.000000     0.000000
   120   1     356.739600       0.000000       0.000000     2.000000     0.000000     0.000000
   121   1     360.000000       0.000000       0.000000     2.000000     0.000000     0.000000
   122   1     362.739600       0.000000       0.000000     2.000000     0.000000     0.000000
   123   1     366.000000       0.000000       0.000000     2.000000     0.000000     0.000000
   124   1     368.739600       0.000000       0.000000     2.000000     0.000000     0.000000
   125   1     372.000000       0.000000       0.000000     2.000000     0.000000     0.000000
   126   1     374.739600       0.000000       0.000000     2.000000     0.000000     0.000000
   127   1     378.000000       0.000000       0.000000     2.000000     0.000000     0.000000
   128   1     380.739600       0.000000       0.000000     2.000000     0.000000     0.000000
ITEM: TIMESTEP
30
ITEM: NUMBER OF ATOMS
128
ITEM: BOX BOUNDS pp pp pp
0.000000 384.000000
-100.000000 100.000000
-100.000000 100.000000
ITEM: ATOMS id type x y z vx vy vz
     1   1      -0.000000       0.000000       0.000000     2.000000     0.000000     0.000000
     2   1       2.739600       0.000000       0.000000     2.000000     0.000000     0.000000
     3   1       6.000000       0.000000       0.000000     2.000000     0.000000     0.000000
     4   1       8.739600       0.000000       0.000000     2.000000     0.000000     0.000000
     5   1      12.000000       0.000000       0.000000     2.000000     0.000000     0.000000
     6   1      14.739600       0.000000       0.000000     2.000000     0.000000     0.000000
     7   1      18.000000       0.000000       0.000000     2.000000     0.000000     0.000000
     8   1      20.739600       0.000000       0.000000     2.000000     0.000000     0.000000
     9   1      24.000000       0.000000       0.000000     2.000000     0.000000     0.000000
    10   1      26.739600       0.000000       0.000000     2.000000     0.000000     0.000000
    11   1      30.000000       0.000000       0.000000     2.000000     0.000000     0.000000
    12   1      32.739600       0.000000       0.000000     2.000000     0.000000     0.000000
    13   1      36.000000       0.000000       0.000000     2.000000     0.000000     0.000000
    14   1      38.739600       0.000000       0.000000     2.000000     0.000000     0.000000
    15   1      42.000000       0.000000       0.000000     2.000000     0.000000     0.000000
    16   1      44.739600       0.000000       0.000000     2.000000     0.000000     0.000000
    17   1      48.000000       0.000000       0.000000     2.000000     0.000000     0.000000
    18   1      50.739600       0.000000       0.000000     2.000000     0.000000     0.000000
    19   1      54.000000       0.000000       0.000000     2.000000     0.000000     0.000000
    20   1      56.739600       0.000000       0.000000     2.000000     0.000000     0.000000
    21   1      60.000000       0.000000       0.000000     2.000000     0.000000     0.000000
    22   1      62.739600       0.000000       0.000000     2.000000     0.000000     0.000000
    23   1      66.000000       0.000000       0.000000     2.000000     0.000000     0.000000
    24   1      68.739600       0.000000       0.000000     2.000000     0.000000     0.000000
    25   1      72.000000       0.000000       0.000000     2.000000     0.000000     0.000000
    26   1      74.739600       0.000000       0.000000     2.000000     0.000000     0.000000
    27   1      78.000000       0.000000       0.000000     2.000000     0.000000     0.000000
    28   1      80.739600       0.000000       0.000000     2.000000     0.000000     0.000000
    29   1      84.000000       0.000000       0.000000     2.000000     0.000000     0.000000
    30   1      86.739600       0.000000       0.000000     2.000000     0.000000     0.000000
    31   1      90.000000       0.000000       0.000000     2.000000     0.000000     0.000000
    32   1      92.739600       0.000000       0.000000     2.000000     0.000000     0.000000
    33   1      96.000000       0.000000       0.000000     2.000000     0.000000     0.000000
    34   1      98.739600       0.000000       0.000000     2.000000     0.000000     0.000000
    35   1     102.000000       0.000000       0.000000     2.000000     0.000000     0.000000
    36   1     104.739600       0.000000       0.000000     2.000000     0.000000     0.000000
    37   1     108.000000       0.000000       0.000000     2.000000     0.000000     0.000000
    38   1     110.739600       0.000000       0.000000     2.000000     0.000000     0.000000
    39   1     114.000000       0.000000       0.000000     2.000000     0.000000     0.000000
    40   1     116.739600       0.000000       0.000000     2.000000     0.000000     0.000000
    41   1     120.000000       0.000000       0.000000     2.000000     0.000000     0.000000
    42   1     122.739600       0.000000       0.000000     2.000000     0.000000     0.000000
    43   1     126.000000       0.000000       0.000000     2.000000     0.000000     0.000000
    44   1     128.739600       0.000000       0.000000     2.000000     0.000000     0.000000
    45   1     132.000000       0.000000       0.000000     2.000000     0.000000     0.000000
    46   1     134.739600       0.000000       0.000000     2.000000     0.000000     0.000000
    47   1     138.000000       0.000000       0.000000     2.000000     0.000000     0.000000
    48   1     140.739600       0.000000       0.000000     2.000000     0.000000     0.000000
    49   1     144.000000       0.000000       0.000000     2.000000     0.000000     0.000000
    50   1     146.739600       0.000000       0.000000     2.000000     0.000000     0.000000
    51   1     150.000000       0.000000       0.000000     2.000000     0.000000     0.000000
    52   1     152.739600       0.000000       0.000000     2.000000     0.000000     0.000000
    53   1     156.000000       0.000000       0.000000     2.000000     0.000000     0.000000
    54   1     158.739600       0.000000       0.000000     2.000000     0.000000     0.000000