ITEM: TIMESTEP
10
ITEM: NUMBER OF ATOMS
126
ITEM: BOX BOUNDS pp pp pp
0.000000 192.000000
-100.000000 100.000000
-100.000000 100.000000
ITEM: ATOMS id type x y z vx vy vz
     1   1      -0.000000       0.000000       0.000000    -0.000000     0.000000     0.000000
     2   1       2.739600       0.000000       0.000000     0.000000     0.000000     0.000000
     3   1       6.000000       0.000000       0.000000    -0.000000     0.000000     0.000000
     4   1       8.739600       0.000000       0.000000     0.000000     0.000000     0.000000
     5   1      12.000000       0.000000       0.000000    -0.000000     0.000000     0.000000
     6   1      14.739600       0.000000       0.000000     0.000000     0.000000     0.000000
     7   1      18.000000       0.000000       0.000000    -0.000000     0.000000     0.000000
     8   1      20.739600       0.000000       0.000000     0.000000     0.000000     0.000000
     9   1      24.000000       0.000000       0.000000    -0.000000     0.000000     0.000000
    10   1      26.739600       0.000000       0.000000     0.000000     0.000000     0.000000
    11   1      30.000000       0.000000       0.000000    -0.000000     0.000000     0.000000
    12   1      32.739600       0.000000       0.000000     0.000000     0.000000     0.000000
    13   1      36.000000       0.000000       0.000000    -0.000000     0.000000     0.000000
    14   1      38.739600       0.000000       0.000000     0.000000     0.000000     0.000000
    15   1      42.000000       0.000000       0.000000    -0.000000     0.000000     0.000000
    16   1      44.739600       0.000000       0.000000     0.000000     0.000000     0.000000
    17   1      48.000000       0.000000       0.000000    -0.000000     0.000000     0.000000
    18   1      50.739600       0.000000       0.000000     0.000000     0.000000     0.000000
    19   1      54.000000       0.000000       0.000000    -0.000000     0.000000     0.000000
    20   1      56.739600       0.000000       0.000000     0.000000     0.000000     0.000000
    21   1      60.000000       0.000000       0.000000    -0.000000     0.000000     0.000000
    22   1      62.739600       0.000000       0.000000     0.000000     0.000000     0.000000
    23   1      66.000000       0.000000       0.000000    -0.000000     0.000000     0.000000
    24   1      68.739600       0.000000       0.000000     0.000000     0.000000     0.000000
    25   1      72.000000       0.000000       0.000000    -0.000000     0.000000     0.000000
    26   1      74.739600       0.000000       0.000000     0.000000     0.000000     0.000000
    27   1      78.000000       0.000000       0.000000    -0.000000     0.000000     0.000000
    28   1      80.739600       0.000000       0.000000     0.000000     0.000000     0.000000
    29   1      84.000000       0.000000       0.000000    -0.000000     0.000000     0.000000
    30   1      86.739600       0.000000       0.000000     0.000000     0.000000     0.000000
    31   1      90.000000       0.000000       0.000000    -0.000000     0.000000     0.000000
    32   1      92.739600       0.000000       0.000000     0.000000     0.000000     0.000000
    33   1      96.000000       0.000000       0.000000    -0.000000     0.000000     0.000000
    34   1      98.739600       0.000000       0.000000     0.000000     0.000000     0.000000
    35   1     102.000000       0.000000       0.000000    -0.000000     0.000000     0.000000
    36   1     104.739600       0.000000       0.000000     0.000000     0.000000     0.000000
    37   1     108.000000       0.000000       0.000000    -0.000000     0.000000     0.000000
    38   1     110.739600       0.000000       0.000000     0.000000     0.000000     0.000000
    39   1     114.000000       0.000000       0.000000    -0.000000     0.000000     0.000000
    40   1     116.739600       0.000000       0.000000     0.000000     0.000000     0.000000
    41   1     120.000000       0.000000       0.000000    -0.000000     0.000000     0.000000
    42   1     122.739600       0.000000       0.000000     0.000000     0.000000     0.000000
    43   1     126.000000       0.000000       0.000000    -0.000000     0.000000     0.000000
    44   1     128.739600       0.000000       0.000000     0.000000     0.000000     0.000000
    45   1     132.000000       0.000000       0.000000    -0.000000     0.000000     0.000000
    46   1     134.739600       0.000000       0.000000     0.000000     0.000000     0.000000
    47   1     138.000000       0.000000       0.000000    -0.000000     0.000000     0.000000
    48   1     140.739600       0.000000       0.000000     0.000000     0.000000     0.000000
    49   1     144.000000       0.000000       0.000000    -0.000000     0.000000     0.000000
    50   1     146.739600       0.000000       0.000000     0.000000     0.000000     0.000000
    51   1     150.000000       0.000000       0.000000    -0.000000     0.000000     0.000000
    52   1     152.739600       0.000000       0.000000     0.000000     0.000000     0.000000
    53   1     156.000000       0.000000       0.000000    -0.000000     0.000000     0.000000
    54   1     158.739600       0.000000       0.000000     0.000000     0.000000     0.000000
    55   1     162.000000       0.000000       0.000000    -0.000000     0.000000     0.000000
    56   1     164.739600       0.000000       0.000000     0.000000     0.000000     0.000000
    57   1     168.000000       0.000000       0.000000    -0.000000     0.000000     0.000000
    58   1     170.739600       0.000000       0.000000     0.000000     0.000000     0.000000
    59   1     174.000000       0.000000       0.000000    -0.000000     0.000000     0.000000
    60   1     176.739600       0.000000       0.000000     0.000000     0.000000     0.000000
    61   1     180.000000       0.000000       0.000000    -0.000000     0.000000     0.000000
    62   1     182.739600       0.000000       0.000000     0.000000     0.000000     0.000000
    63   1     186.000000       0.000000       0.000000    -0.000000     0.000000     0.000000
    64   1     188.739600       0.000000       0.000000     0.000000     0.000000     0.000000
    65   1       0.000000       4.000000       0.000000    -0.000000     0.000000     0.000000
    66   1       2.827974       4.000000       0.000000     0.000000     0.000000     0.000000
    67   1       6.193548       4.000000       0.000000    -0.000000     0.000000     0.000000
    68   1       9.021523       4.000000       0.000000     0.000000     0.000000     0.000000
    69   1      12.387097       4.000000       0.000000    -0.000000     0.000000     0.000000
    70   1      15.215071       4.000000       0.000000     0.000000     0.000000     0.000000
    71   1      18.580645       4.000000       0.000000    -0.000000     0.000000     0.000000
    72   1      21.408619       4.000000       0.000000     0.000000     0.000000     0.000000
    73   1      24.774194       4.000000       0.000000    -0.000000     0.000000     0.000000
    74   1      27.602168       4.000000       0.000000     0.000000     0.000000     0.000000
    75   1      30.967742       4.000000       0.000000    -0.000000     0.000000     0.000000
    76   1      33.795716       4.000000       0.000000     0.000000     0.000000     0.000000
    77   1      37.161290       4.000000       0.000000    -0.000000     0.000000     0.000000
    78   1      39.989265       4.000000       0.000000     0.000000     0.000000     0.000000
    79   1      43.354839       4.000000       0.000000    -0.000000     0.000000     0.000000
    80   1      46.182813       4.000000       0.000000     0.000000     0.000000     0.000000
    81   1      49.548387       4.000000       0.000000    -0.000000     0.000000     0.000000
    82   1      52.376361       4.000000       0.000000     0.000000     0.000000     0.000000
    83   1      55.741935       4.000000       0.000000    -0.000000     0.000000     0.000000
    84   1      58.569910       4.000000       0.000000     0.000000     0.000000     0.000000
    85   1      61.935484       4.000000       0.000000    -0.000000     0.000000     0.000000
    86   1      64.763458       4.000000       0.000000     0.000000     0.000000     0.000000
    87   1      68.129032       4.000000       0.000000    -0.000000     0.000000     0.000000
    88   1      70.957006       4.000000       0.000000     0.000000     0.000000     0.000000
    89   1      74.322581       4.000000       0.000000    -0.000000     0.000000     0.000000
    90   1      77.150555       4.000000       0.000000     0.000000     0.000000     0.000000
    91   1      80.516129       4.000000       0.000000    -0.000000     0.000000     0.000000
    92   1      83.344103       4.000000       0.000000     0.000000     0.000000     0.000000
    93   1      86.709677       4.000000       0.000000    -0.000000     0.000000     0.000000
    94   1      89.537652       4.000000       0.000000     0.000000     0.000000     0.000000
    95   1      92.903226       4.000000       0.000000    -0.000000     0.000000     0.000000
    96   1      95.731200       4.000000       0.000000     0.000000     0.000000     0.000000
    97   1      99.096774       4.000000       0.000000    -0.000000     0.000000     0.000000
    98   1     101.924748       4.000000       0.000000     0.000000     0.000000     0.000000
    99   1     105.290323       4.000000       0.000000    -0.000000     0.000000     0.000000
   100   1     108.118297       4.000000       0.000000     0.000000     0.000000     0.000000
   101   1     111.483871       4.000000       0.000000    -0.000000     0.000000     0.000000
   102   1     114.311845       4.000000       0.000000     0.000000     0.000000     0.000000
   103   1     117.677419       4.000000       0.000000    -0.000000     0.000000     0.000000
   104   1     120.505394       4.000000       0.000000     0.000000     0.000000     0.000000
   105   1     123.870968       4.000000       0.000000    -0.000000     0.000000     0.000000
   106   1     126.698942       4.000000       0.000000     0.000000     0.000000     0.000000
   107   1     130.064516       4.000000       0.000000    -0.000000     0.000000     0.000000
   108   1     132.892490       4.000000       0.000000     0.000000     0.000000     0.000000
   109   1     136.258065       4.000000       0.000000    -0.000000     0.000000     0.000000
   110   1     139.086039       4.000000       0.000000     0.000000     0.000000     0.000000
   111   1     142.451613       4.000000       0.000000    -0.000000     0.000000     0.000000
   112   1     145.279587       4.000000       0.000000     0.000000     0.000000     0.000000
   113   1     148.645161       4.000000       0.000000    -0.000000     0.000000     0.000000
   114   1     151.473135       4.000000       0.000000     0.000000     0.000000     0.000000
   115   1     154.838710       4.000000       0.000000    -0.000000     0.000000     0.000000
   116   1     157.666684       4.000000       0.000000     0.000000     0.000000     0.000000
   117   1     161.032258       4.000000       0.000000    -0.000000     0.000000     0.000000
   118   1     163.860232       4.000000       0.000000     0.000000     0.000000     0.000000
   119   1     167.225806       4.000000       0.000000    -0.000000     0.000000     0.000000
   120   1     170.053781       4.000000       0.000000     0.000000     0.000000     0.000000
   121   1     173.419355       4.000000       0.000000    -0.000000     0.000000     0.000000
   122   1     176.247329       4.000000       0.000000     0.000000     0.000000     0.000000
   123   1     179.612903       4.000000       0.000000    -0.000000     0.000000     0.000000
   124   1     182.440877       4.000000       0.000000     0.000000     0.000000     0.000000
   125   1     185.806452       4.000000       0.000000    -0.000000     0.000000     0.000000
   126   1     188.634426       4.000000       0.000000     0.000000     0.000000     0.000000
ITEM: TIMESTEP
20
ITEM: NUMBER OF ATOMS
126
ITEM: BOX BOUNDS pp pp pp
0.000000 192.000000
-100.000000 100.000000
-100.000000 100.000000
ITEM: ATOMS id type x y z vx vy vz
     1   1      -0.000000       0.000000       0.000000    -0.000000     0.000000     0.000000
     2   1       2.739600       0.000000       0.000000     0.000000     0.000000     0.000000
     3   1       6.000000       0.000000       0.000000    -0.000000     0.000000     0.000000
     4   1       8.739600       0.000000       0.000000     0.000000     0.000000     0.000000
     5   1      12.000000       0.000000       0.000000    -0.000000     0.000000     0.000000
     6   1      14.739600       0.000000       0.000000     0.000000     0.000000     0.000000
     7   1      18.000000       0.000000       0.000000    -0.000000     0.000000     0.000000
     8   1      20.739600       0.000000       0.000000     0.000000     0.000000     0.000000
     9   1      24.000000       0.000000       0.000000    -0.000000     0.000000     0.000000
    10   1      26.739600       0.000000       0.000000     0.000000     0.000000     0.000000
    11   1      30.000000       0.000000       0.000000    -0.000000     0.000000     0.000000
    12   1      32.739600       0.000000       0.000000     0.000000     0.000000     0.000000
    13   1      36.000000       0.000000       0.000000    -0.000000     0.000000     0.000000
    14   1      38.739600       0.000000       0.000000     0.000000     0.000000     0.000000
    15   1      42.000000       0.000000       0.000000    -0.000000     0.000000     0.000000
    16   1      44.739600       0.000000       0.000000     0.000000     0.000000     0.000000
    17   1      48.000000       0.000000       0.000000    -0.000000     0.000000     0.000000
    18   1      50.739600       0.000000       0.000000     0.000000     0.000000     0.000000
    19   1      54.000000       0.000000       0.000000    -0.000000     0.000000     0.000000
    20   1      56.739600       0.000000       0.000000     0.000000     0.000000     0.000000
    21   1      60.000000       0.000000       0.000000    -0.000000     0.000000     0.000000
    22   1      62.739600       0.000000       0.000000     0.000000     0.000000     0.000000
    23   1      66.000000       0.000000       0.000000    -0.000000     0.000000     0.000000
    24   1      68.739600       0.000000       0.000000     0.000000     0.000000     0.000000
    25   1      72.000000       0.000000       0.000000    -0.000000     0.000000     0.000000
    26   1      74.739600       0.000000       0.000000     0.000000     0.000000     0.000000
    27   1      78.000000       0.000000       0.000000    -0.000000     0.000000     0.000000
    28   1      80.739600       0.000000       0.000000     0.000000     0.000000     0.000000
    29   1      84.000000       0.000000       0.000000    -0.000000     0.000000     0.000000
    30   1      86.739600       0.000000       0.000000     0.000000     0.000000     0.000000
    31   1      90.000000       0.000000       0.000000    -0.000000     0.000000     0.000000
    32   1      92.739600       0.000000       0.000000     0.000000     0.000000     0.000000
    33   1      96.000000       0.000000       0.000000    -0.000000     0.000000     0.000000
    34   1      98.739600       0.000000       0.000000     0.000000     0.000000     0.000000
    35   1     102.000000       0.000000       0.000000    -0.000000     0.000000     0.000000
    36   1     104.739600       0.000000       0.000000     0.000000     0.000000     0.000000
    37   1     108.000000       0.000000       0.000000    -0.000000     0.000000     0.000000
    38   1     110.739600       0.000000       0.000000     0.000000     0.000000     0.000000
    39   1     114.000000       0.000000       0.000000    -0.000000     0.000000     0.000000
    40   1     116.739600       0.000000       0.000000     0.000000     0.000000     0.000000
    41   1     120.000000       0.000000       0.000000    -0.000000     0.000000     0.000000
    42   1     122.739600       0.000000       0.000000     0.000000     0.000000     0.000000
    43   1     126.000000       0.000000       0.000000    -0.000000     0.000000     0.000000
    44   1     128.739600       0.000000       0.000000     0.000000     0.000000     0.000000
    45   1     132.000000       0.000000       0.000000    -0.000000     0.000000     0.000000
    46   1     134.739600       0.000000       0.000000     0.000000     0.000000     0.000000
    47   1     138.000000       0.000000       0.000000    -0.000000     0.000000     0.000000
    48   1     140.739600       0.000000       0.000000     0.000000     0.000000     0.000000
    49   1     144.000000       0.000000       0.000000    -0.000000     0.000000     0.000000
    50   1     146.739600       0.000000       0.000000     0.000000     0.000000     0.000000
    51   1     150.000000       0.000000       0.000000    -0.000000     0.000000     0.000000
    52   1     152.739600       0.000000       0.000000     0.000000     0.000000     0.000000
    53   1     156.000000       0.000000       0.000000    -0.000000     0.000000     0.000000
    54   1     158.739600       0.000000       0.000000     0.000000     0.000000     0.000000
    55   1     162.000000       0.000000       0.000000    -0.000000     0.000000     0.000000
    56   1     164.739600       0.000000       0.000000     0.000000     0.000000     0.000000
    57   1     168.000000       0.000000       0.000000    -0.000000     0.000000     0.000000
    58   1     170.739600       0.000000       0.000000     0.000000     0.000000     0.000000
    59   1     174.000000       0.000000       0.000000    -0.000000     0.000000     0.000000
    60   1     176.739600       0.000000       0.000000     0.000000     0.000000     0.000000
    61   1     180.000000       0.000000       0.000000    -0.000000     0.000000     0.000000
    62   1     182.739600       0.000000       0.000000     0.000000     0.000000     0.000000
    63   1     186.000000       0.000000       0.000000    -0.000000     0.000000     0.000000
    64   1     188.739600       0.000000       0.000000     0.000000     0.000000     0.000000
    65   1       0.000000       4.000000       0.000000    -0.000000     0.000000     0.000000
    66   1       2.827974       4.000000       0.000000     0.000000     0.000000     0.000000
    67   1       6.193548       4.000000       0.000000    -0.000000     0.000000     0.000000
    68   1       9.021523       4.000000       0.000000     0.000000     0.000000     0.000000
    69   1      12.387097       4.000000       0.000000    -0.000000     0.000000     0.000000
    70   1      15.215071       4.000000       0.000000     0.000000     0.000000     0.000000
    71   1      18.580645       4.000000       0.000000    -0.000000     0.000000     0.000000
    72   1      21.408619       4.000000       0.000000     0.000000     0.000000     0.000000
    73   1      24.774194       4.000000       0.000000    -0.000000     0.000000     0.000000
    74   1      27.602168       4.000000       0.000000     0.000000     0.000000     0.000000
    75   1      30.967742       4.000000       0.000000    -0.000000     0.000000     0.000000
    76   1      33.795716       4.000000       0.000000     0.000000     0.000000     0.000000
    77   1      37.161290       4.000000       0.000000    -0.000000     0.000000     0.000000
    78   1      39.989265       4.000000       0.000000     0.000000     0.000000     0.000000
    79   1      43.354839       4.000000       0.000000    -0.000000     0.000000     0.000000
    80   1      46.182813       4.000000       0.000000     0.000000     0.000000     0.000000
    81   1      49.548387       4.000000       0.000000    -0.000000     0.000000     0.000000
    82   1      52.376361       4.000000       0.000000     0.000000     0.000000     0.000000
    83   1      55.741935       4.000000       0.000000    -0.000000     0.000000     0.000000
    84   1      58.569910       4.000000       0.000000     0.000000     0.000000     0.000000
    85   1      61.935484       4.000000       0.000000    -0.000000     0.000000     0.000000
    86   1      64.763458       4.000000       0.000000     0.000000     0.000000     0.000000
    87   1      68.129032       4.000000       0.000000    -0.000000     0.000000     0.000000
    88   1      70.957006       4.000000       0.000000     0.000000     0.000000     0.000000
    89   1      74.322581       4.000000       0.000000    -0.000000     0.000000     0.000000
    90   1      77.150555       4.000000       0.000000     0.000000     0.000000     0.000000
    91   1      80.516129       4.000000       0.000000    -0.000000     0.000000     0.000000
    92   1      83.344103       4.000000       0.000000     0.000000     0.000000     0.000000
    93   1      86.709677       4.000000       0.000000    -0.000000     0.000000     0.000000
    94   1      89.537652       4.000000       0.000000     0.000000     0.000000     0.000000
    95   1      92.903226       4.000000       0.000000    -0.000000     0.000000     0.000000
    96   1      95.731200       4.000000       0.000000     0.000000     0.000000     0.000000
    97   1      99.096774       4.000000       0.000000    -0.000000     0.000000     0.000000
    98   1     101.924748       4.000000       0.000000     0.000000     0.000000     0.000000
    99   1     105.290323       4.000000       0.000000    -0.000000     0.000000     0.000000
   100   1     108.118297       4.000000       0.000000     0.000000     0.000000     0.000000
   101   1     111.483871       4.000000       0.000000    -0.000000     0.000000     0.000000
   102   1     114.311845       4.000000       0.000000     0.000000     0.000000     0.000000
   103   1     117.677419       4.000000       0.000000    -0.000000     0.000000     0.000000
   104   1     120.505394       4.000000       0.000000     0.000000     0.000000     0.000000
   105   1     123.870968       4.000000       0.000000    -0.000000     0.000000     0.000000
   106   1     126.698942       4.000000       0.000000     0.000000     0.000000     0.000000
   107   1     130.064516       4.000000       0.000000    -0.000000     0.000000     0.000000
   108   1     132.892490       4.000000       0.000000     0.000000     0.000000     0.000000
   109   1     136.258065       4.000000       0.000000    -0.000000     0.000000     0.000000
   110   1     139.086039       4.000000       0.000000     0.000000     0.000000     0.000000
   111   1     142.451613       4.000000       0.000000    -0.000000     0.000000     0.000000
   112   1     145.279587       4.000000       0.000000     0.000000     0.000000     0.000000
   113   1     148.645161       4.000000       0.000000    -0.000000     0.000000     0.000000
   114   1     151.473135       4.000000       0.000000     0.000000     0.000000     0.000000
   115   1     154.838710       4.000000       0.000000    -0.000000     0.000000     0.000000
   116   1     157.666684       4.000000       0.000000     0.000000     0.000000     0.000000
   117   1     161.032258       4.000000       0.000000    -0.000000     0.000000     0.000000
   118   1     163.860232       4.000000       0.000000     0.000000     0.000000     0.000000
   119   1     167.225806       4.000000       0.000000    -0.000000     0.000000     0.000000
   120   1     170.053781       4.000000       0.000000     0.000000     0.000000     0.000000
   121   1     173.419355       4.000000       0.000000    -0.000000     0.000000     0.000000
   122   1     176.247329       4.000000       0.000000     0.000000     0.000000     0.000000
   123   1     179.612903       4.000000       0.000000    -0.000000     0.000000     0.000000
   124   1     182.440877       4.000000       0.000000     0.000000     0.000000     0.000000
   125   1     185.806452       4.000000       0.000000    -0.000000     0.000000     0.000000
   126   1     188.634426       4.000000       0.000000     0.000000     0.000000     0.000000
ITEM: TIMESTEP
30
ITEM: NUMBER OF ATOMS
126
ITEM: BOX BOUNDS pp pp pp
0.000000 192.000000
-100.000000 100.000000
-100.000000 100.000000
ITEM: ATOMS id type x y z vx vy vz
     1   1      -0.000000       0.000000       0.000000    -0.000000     0.000000     0.000000
     2   1       2.739600       0.000000       0.000000     0.000000     0.000000     0.000000
     3   1       6.000000       0.000000       0.000000    -0.000000     0.000000     0.000000
     4   1       8.739600       0.000000       0.000000     0.000000     0.000000     0.000000
     5   1      12.000000       0.000000       0.000000    -0.000000     0.000000     0.000000
     6   1      14.739600       0.000000       0.000000     0.000000     0.000000     0.000000
     7   1      18.000000       0.000000       0.000000    -0.000000     0.000000     0.000000
     8   1      20.739600       0.000000       0.000000     0.000000     0.000000     0.000000
     9   1      24.000000       0.000000       0.000000    -0.000000     0.000000     0.000000
    10   1      26.739600       0.000000       0.000000     0.000000     0.000000     0.000000
    11   1      30.000000       0.000000       0.000000    -0.000000     0.000000     0.000000
    12   1      32.739600       0.000000       0.000000     0.000000     0.000000     0.000000
    13   1      36.000000       0.000000       0.000000    -0.000000     0.000000     0.000000
    14   1      38.739600       0.000000       0.000000     0.000000     0.000000     0.000000
    15   1      42.000000       0.000000       0.000000    -0.000000     0.000000     0.000000
    16   1      44.739600       0.000000       0.000000     0.000000     0.000000     0.000000
    17   1      48.000000       0.000000       0.000000    -0.000000     0.000000     0.000000
    18   1      50.739600       0.000000       0.000000     0.000000     0.000000     0.000000
    19   1      54.000000       0.000000       0.000000    -0.000000     0.000000     0.000000
    20   1      56.739600       0.000000       0.000000     0.000000     0.000000     0.000000
    21   1      60.000000       0.000000       0.000000    -0.000000     0.000000     0.000000
    22   1      62.739600       0.000000       0.000000     0.000000     0.000000     0.000000
    23   1      66.000000       0.000000       0.000000    -0.000000     0.000000     0.000000
    24   1      68.739600       0.000000       0.000000     0.000000     0.000000     0.000000
    25   1      72.000000       0.000000       0.000000    -0.000000     0.000000     0.000000
    26   1      74.739600       0.000000       0.000000     0.000000     0.000000     0.000000
    27   1      78.000000       0.000000       0.000000    -0.000000     0.000000     0.000000
    28   1      80.739600       0.000000       0.000000     0.000000     0.000000     0.000000
    29   1      84.000000       0.000000       0.000000    -0.000000     0.000000     0.000000
    30   1      86.739600       0.000000       0.000000     0.000000     0.000000     0.000000
    31   1      90.000000       0.000000       0.000000    -0.000000     0.000000     0.000000
    32   1      92.739600       0.000000       0.000000     0.000000     0.000000     0.000000
    33   1      96.000000       0.000000       0.000000    -0.000000     0.000000     0.000000
    34   1      98.739600       0.000000       0.000000     0.000000     0.000000     0.000000
    35   1     102.000000       0.000000       0.000000    -0.000000     0.000000     0.000000
    36   1     104.739600       0.000000       0.000000     0.000000     0.000000     0.000000
    37   1     108.000000       0.000000       0.000000    -0.000000     0.000000     0.000000
    38   1     110.739600       0.000000       0.000000     0.000000     0.000000     0.000000
    39   1     114.000000       0.000000       0.000000    -0.000000     0.000000     0.000000
    40   1     116.739600       0.000000       0.000000     0.000000     0.000000     0.000000
    41   1     120.000000       0.000000       0.000000    -0.000000     0.000000     0.000000
    42   1     122.739600       0.000000       0.000000     0.000000     0.000000     0.000000
    43   1     126.000000       0.000000       0.000000    -0.000000     0.000000     0.000000
    44   1     128.739600       0.000000       0.000000     0.000000     0.000000     0.000000
    45   1     132.000000       0.000000       0.000000    -0.000000     0.000000     0.000000
    46   1     134.739600       0.000000       0.000000     0.000000     0.000000     0.000000
    47   1     138.000000       0.000000       0.000000    -0.000000     0.000000     0.000000
    48   1     140.739600       0.000000       0.000000     0.000000     0.000000     0.000000
    49   1     144.000000       0.000000       0.000000    -0.000000     0.000000     0.000000
    50   1     146.739600       0.000000       0.000000     0.000000     0.000000     0.000000
    51   1     150.000000       0.000000       0.000000    -0.000000     0.000000     0.000000
    52   1     152.739600       0.000000       0.000000     0.000000     0.000000     0.000000
    53   1     156.000000       0.000000       0.000000    -0.000000     0.000000     0.000000
    54   1     158.739600       0.000000       0.000000     0.000000     0.000000     0.000000
    55   1     162.000000       0.000000       0.000000    -0.000000     0.000000     0.000000
    56   1     164.739600       0.000000       0.000000     0.000000     0.000000     0.000000
    57   1     168.000000       0.000000       0.000000    -0.000000     0.000000     0.000000
    58   1     170.739600       0.000000       0.000000     0.000000     0.000000     0.000000